# vtk DataFile Version 3.0
vtk output
ASCII
DATASET UNSTRUCTURED_GRID
POINTS 166 float
2.287949e-02	-2.001251e-02	0.0	2.113956e-02	-1.930973e-02	0.0	1.940761e-02	-1.858750e-02	0.0	1.768874e-02	-1.783467e-02	0.0	1.598443e-02	-1.704945e-02	0.0	1.430127e-02	-1.621984e-02	0.0	1.264132e-02	-1.534473e-02	0.0	1.101107e-02	-1.441546e-02	0.0	9.428387e-03	-1.340731e-02	0.0	7.899407e-03	-1.231943e-02	0.0	6.449888e-03	-1.112773e-02	0.0	5.096000e-03	-9.828401e-03	0.0	3.827044e-03	-8.446008e-03	0.0	2.707217e-03	-6.940270e-03	0.0	1.742502e-03	-5.330741e-03	0.0	9.685618e-04	-3.621274e-03	0.0	3.961398e-04	-1.834212e-03	0.0	0.000000e+00	0.000000e+00	0.0	3.027445e-02	-2.274371e-02	0.0	4.009284e-02	-2.595485e-02	0.0	5.108820e-02	-2.913607e-02	0.0	6.130171e-02	-3.177324e-02	0.0	6.927028e-02	-3.367852e-02	0.0	7.469116e-02	-3.490836e-02	0.0	7.804512e-02	-3.564449e-02	0.0	8.000000e-02	-3.606600e-02	0.0	-1.236166e-04	2.116301e-03	0.0	1.736194e-04	4.215330e-03	0.0	7.890248e-04	6.243928e-03	0.0	1.672967e-03	8.170719e-03	0.0	2.777076e-03	9.980410e-03	0.0	4.051863e-03	1.167420e-02	0.0	5.475803e-03	1.324470e-02	0.0	7.004264e-03	1.471365e-02	0.0	8.633047e-03	1.607054e-02	0.0	1.032795e-02	1.734384e-02	0.0	1.207289e-02	1.854767e-02	0.0	1.385642e-02	1.969355e-02	0.0	1.567146e-02	2.078883e-02	0.0	1.751217e-02	2.184040e-02	0.0	1.937166e-02	2.285838e-02	0.0	2.124916e-02	2.384277e-02	0.0	2.313877e-02	2.480370e-02	0.0	2.492744e-02	2.568716e-02	0.0	2.738809e-02	2.685915e-02	0.0	3.077721e-02	2.840142e-02	0.0	3.544088e-02	3.043326e-02	0.0	4.187793e-02	3.305340e-02	0.0	5.076278e-02	3.640172e-02	0.0	6.305044e-02	4.055856e-02	0.0	8.000000e-02	4.573300e-02	0.0	9.159831e-02	-3.844244e-02	0.0	1.032303e-01	-4.064830e-02	0.0	1.148901e-01	-4.270173e-02	0.0	1.265731e-01	-4.461880e-02	0.0	1.382754e-01	-4.641485e-02	0.0	1.500000e-01	-4.805850e-02	0.0	9.155130e-02	4.891573e-02	0.0	1.031594e-01	5.188478e-02	0.0	1.148139e-01	5.466603e-02	0.0	1.265076e-01	5.727733e-02	0.0	1.382344e-01	5.973590e-02	0.0	1.500000e-01	6.200150e-02	0.0	1.692681e-01	-5.058986e-02	0.0	1.885682e-01	-5.286493e-02	0.0	2.078950e-01	-5.490071e-02	0.0	2.272437e-01	-5.671575e-02	0.0	2.466106e-01	-5.832606e-02	0.0	2.659929e-01	-5.973813e-02	0.0	2.853884e-01	-6.095579e-02	0.0	3.047949e-01	-6.198297e-02	0.0	3.242106e-01	-6.281942e-02	0.0	3.436334e-01	-6.346974e-02	0.0	3.630614e-01	-6.394068e-02	0.0	3.824931e-01	-6.422022e-02	0.0	4.019267e-01	-6.427543e-02	0.0	4.213595e-01	-6.408962e-02	0.0	4.407881e-01	-6.364479e-02	0.0	4.602092e-01	-6.294656e-02	0.0	4.796188e-01	-6.197802e-02	0.0	4.990127e-01	-6.073553e-02	0.0	5.183875e-01	-5.922398e-02	0.0	5.377414e-01	-5.746479e-02	0.0	5.570740e-01	-5.548557e-02	0.0	5.763854e-01	-5.330833e-02	0.0	5.956778e-01	-5.096899e-02	0.0	6.149522e-01	-4.848599e-02	0.0	6.342100e-01	-4.587739e-02	0.0	6.534520e-01	-4.315465e-02	0.0	6.726791e-01	-4.032871e-02	0.0	6.918948e-01	-3.742564e-02	0.0	7.111026e-01	-3.447132e-02	0.0	7.303055e-01	-3.148531e-02	0.0	7.495040e-01	-2.847085e-02	0.0	7.686999e-01	-2.544016e-02	0.0	7.878971e-01	-2.241794e-02	0.0	8.070988e-01	-1.942400e-02	0.0	8.263092e-01	-1.648605e-02	0.0	8.455313e-01	-1.362641e-02	0.0	8.647686e-01	-1.087037e-02	0.0	8.840259e-01	-8.258088e-03	0.0	9.033077e-01	-5.833127e-03	0.0	9.210242e-01	-3.804915e-03	0.0	9.358125e-01	-2.345309e-03	0.0	9.481478e-01	-1.254915e-03	0.0	9.584410e-01	-5.168852e-04	0.0	9.670272e-01	-3.656000e-05	0.0	9.741865e-01	2.809238e-04	0.0	9.801561e-01	4.490291e-04	0.0	9.851323e-01	5.114702e-04	0.0	9.892795e-01	4.948814e-04	0.0	9.927347e-01	4.192583e-04	0.0	9.956133e-01	3.322211e-04	0.0	9.980093e-01	1.922505e-04	0.0	1.000000e+00	0.000000e+00	0.0	1.692158e-01	6.548029e-02	0.0	1.884884e-01	6.862982e-02	0.0	2.078086e-01	7.147208e-02	0.0	2.271686e-01	7.402967e-02	0.0	2.465620e-01	7.632028e-02	0.0	2.659841e-01	7.835329e-02	0.0	2.854309e-01	8.013515e-02	0.0	3.048986e-01	8.167074e-02	0.0	3.243840e-01	8.296248e-02	0.0	3.438838e-01	8.401625e-02	0.0	3.633946e-01	8.483912e-02	0.0	3.829142e-01	8.541914e-02	0.0	4.024400e-01	8.572473e-02	0.0	4.219682e-01	8.573904e-02	0.0	4.414942e-01	8.544807e-02	0.0	4.610135e-01	8.485753e-02	0.0	4.805208e-01	8.395440e-02	0.0	5.000109e-01	8.273414e-02	0.0	5.194781e-01	8.119233e-02	0.0	5.389198e-01	7.935646e-02	0.0	5.583346e-01	7.725462e-02	0.0	5.777213e-01	7.490834e-02	0.0	5.970817e-01	7.235386e-02	0.0	6.164160e-01	6.960849e-02	0.0	6.357246e-01	6.668814e-02	0.0	6.550076e-01	6.360352e-02	0.0	6.742650e-01	6.036281e-02	0.0	6.935002e-01	5.699276e-02	0.0	7.127166e-01	5.351703e-02	0.0	7.319169e-01	4.995336e-02	0.0	7.511004e-01	4.630050e-02	0.0	7.702689e-01	4.256969e-02	0.0	7.894259e-01	3.877995e-02	0.0	8.085745e-01	3.494852e-02	0.0	8.277191e-01	3.109698e-02	0.0	8.468629e-01	2.724115e-02	0.0	8.660091e-01	2.339749e-02	0.0	8.851636e-01	1.959545e-02	0.0	9.043318e-01	1.586293e-02	0.0	9.218510e-01	1.253682e-02	0.0	9.364692e-01	9.866070e-03	0.0	9.486625e-01	7.704188e-03	0.0	9.588379e-01	5.985226e-03	0.0	9.673281e-01	4.617502e-03	0.0	9.744094e-01	3.516250e-03	0.0	9.803168e-01	2.640946e-03	0.0	9.852441e-01	1.941752e-03	0.0	9.893534e-01	1.382070e-03	0.0	9.927800e-01	9.325971e-04	0.0	9.956365e-01	5.652716e-04	0.0	9.980178e-01	2.664367e-04	0.0	
CELLS 166	498
2	56	63	2	63	64	2	64	65	2	65	66	2	66	67	2	67	68	2	68	69	2	69	70	2	70	71	2	71	72	2	72	73	2	73	74	2	74	75	2	75	76	2	76	77	2	77	78	2	78	79	2	79	80	2	80	81	2	81	82	2	82	83	2	83	84	2	84	85	2	85	86	2	86	87	2	87	88	2	88	89	2	89	90	2	90	91	2	91	92	2	92	93	2	93	94	2	94	95	2	95	96	2	96	97	2	97	98	2	98	99	2	99	100	2	100	101	2	101	102	2	102	103	2	103	104	2	104	105	2	105	106	2	106	107	2	107	108	2	108	109	2	109	110	2	110	111	2	111	112	2	112	113	2	113	114	2	62	115	2	115	116	2	116	117	2	117	118	2	118	119	2	119	120	2	120	121	2	121	122	2	122	123	2	123	124	2	124	125	2	125	126	2	126	127	2	127	128	2	128	129	2	129	130	2	130	131	2	131	132	2	132	133	2	133	134	2	134	135	2	135	136	2	136	137	2	137	138	2	138	139	2	139	140	2	140	141	2	141	142	2	142	143	2	143	144	2	144	145	2	145	146	2	146	147	2	147	148	2	148	149	2	149	150	2	150	151	2	151	152	2	152	153	2	153	154	2	154	155	2	155	156	2	156	157	2	157	158	2	158	159	2	159	160	2	160	161	2	161	162	2	162	163	2	163	164	2	164	165	2	165	114	2	17	26	2	26	27	2	27	28	2	28	29	2	29	30	2	30	31	2	31	32	2	32	33	2	33	34	2	34	35	2	35	36	2	36	37	2	37	38	2	38	39	2	39	40	2	40	41	2	41	42	2	42	43	2	43	44	2	44	45	2	45	46	2	46	47	2	47	48	2	48	49	2	49	50	2	0	18	2	18	19	2	19	20	2	20	21	2	21	22	2	22	23	2	23	24	2	24	25	2	0	1	2	1	2	2	2	3	2	3	4	2	4	5	2	5	6	2	6	7	2	7	8	2	8	9	2	9	10	2	10	11	2	11	12	2	12	13	2	13	14	2	14	15	2	15	16	2	16	17	2	50	57	2	57	58	2	58	59	2	59	60	2	60	61	2	61	62	2	25	51	2	51	52	2	52	53	2	53	54	2	54	55	2	55	56	
CELL_TYPES 166
3	3	3	3	3	3	3	3	3	3	3	3	3	3	3	3	3	3	3	3	3	3	3	3	3	3	3	3	3	3	3	3	3	3	3	3	3	3	3	3	3	3	3	3	3	3	3	3	3	3	3	3	3	3	3	3	3	3	3	3	3	3	3	3	3	3	3	3	3	3	3	3	3	3	3	3	3	3	3	3	3	3	3	3	3	3	3	3	3	3	3	3	3	3	3	3	3	3	3	3	3	3	3	3	3	3	3	3	3	3	3	3	3	3	3	3	3	3	3	3	3	3	3	3	3	3	3	3	3	3	3	3	3	3	3	3	3	3	3	3	3	3	3	3	3	3	3	3	3	3	3	3	3	3	3	3	3	3	3	3	3	3	3	3	3	3	
POINT_DATA 166

SCALARS Conservative_1 float 1
LOOKUP_TABLE default
1.709006e+00	1.710951e+00	1.711396e+00	1.711384e+00	1.711601e+00	1.712011e+00	1.712492e+00	1.713534e+00	1.715061e+00	1.717449e+00	1.721202e+00	1.725217e+00	1.729641e+00	1.735111e+00	1.740420e+00	1.745555e+00	1.749163e+00	1.752058e+00	1.709863e+00	1.708512e+00	1.707070e+00	1.705999e+00	1.705353e+00	1.704899e+00	1.704297e+00	1.703885e+00	1.753095e+00	1.750123e+00	1.745914e+00	1.740797e+00	1.735639e+00	1.730704e+00	1.726719e+00	1.723019e+00	1.720135e+00	1.718228e+00	1.716722e+00	1.715519e+00	1.714519e+00	1.713733e+00	1.713048e+00	1.712484e+00	1.711939e+00	1.711069e+00	1.710387e+00	1.709570e+00	1.708434e+00	1.707063e+00	1.705244e+00	1.703280e+00	1.702163e+00	1.704695e+00	1.704033e+00	1.703544e+00	1.703117e+00	1.702705e+00	1.702247e+00	1.700448e+00	1.699789e+00	1.699033e+00	1.698339e+00	1.697651e+00	1.696945e+00	1.702171e+00	1.701620e+00	1.701224e+00	1.700870e+00	1.700547e+00	1.700248e+00	1.699983e+00	1.699742e+00	1.699527e+00	1.699342e+00	1.699157e+00	1.698968e+00	1.698815e+00	1.698781e+00	1.698888e+00	1.699114e+00	1.699483e+00	1.700026e+00	1.700724e+00	1.701557e+00	1.702474e+00	1.703455e+00	1.704464e+00	1.705468e+00	1.706469e+00	1.707470e+00	1.708482e+00	1.709498e+00	1.710490e+00	1.711444e+00	1.712381e+00	1.713320e+00	1.714217e+00	1.715077e+00	1.715889e+00	1.716664e+00	1.717396e+00	1.718081e+00	1.718700e+00	1.719250e+00	1.719655e+00	1.719929e+00	1.720157e+00	1.720259e+00	1.720324e+00	1.720361e+00	1.720333e+00	1.720286e+00	1.720168e+00	1.720065e+00	1.719956e+00	1.718525e+00	1.696709e+00	1.695809e+00	1.695157e+00	1.694585e+00	1.694071e+00	1.693608e+00	1.693190e+00	1.692820e+00	1.692494e+00	1.692212e+00	1.691941e+00	1.691679e+00	1.691472e+00	1.691399e+00	1.691501e+00	1.691744e+00	1.692145e+00	1.692735e+00	1.693509e+00	1.694463e+00	1.695513e+00	1.696641e+00	1.697806e+00	1.698975e+00	1.700152e+00	1.701320e+00	1.702513e+00	1.703718e+00	1.704904e+00	1.706052e+00	1.707177e+00	1.708298e+00	1.709406e+00	1.710495e+00	1.711560e+00	1.712583e+00	1.713560e+00	1.714481e+00	1.715345e+00	1.716097e+00	1.716695e+00	1.717180e+00	1.717572e+00	1.717874e+00	1.718114e+00	1.718313e+00	1.718466e+00	1.718586e+00	1.718672e+00	1.718728e+00	1.718736e+00	
SCALARS Conservative_2 float 1
LOOKUP_TABLE default
0.000000e+00	0.000000e+00	0.000000e+00	0.000000e+00	0.000000e+00	0.000000e+00	0.000000e+00	0.000000e+00	0.000000e+00	0.000000e+00	0.000000e+00	0.000000e+00	0.000000e+00	0.000000e+00	0.000000e+00	0.000000e+00	0.000000e+00	0.000000e+00	0.000000e+00	0.000000e+00	0.000000e+00	0.000000e+00	0.000000e+00	0.000000e+00	0.000000e+00	0.000000e+00	0.000000e+00	0.000000e+00	0.000000e+00	0.000000e+00	0.000000e+00	0.000000e+00	0.000000e+00	0.000000e+00	0.000000e+00	0.000000e+00	0.000000e+00	0.000000e+00	0.000000e+00	0.000000e+00	0.000000e+00	0.000000e+00	0.000000e+00	0.000000e+00	0.000000e+00	0.000000e+00	0.000000e+00	0.000000e+00	0.000000e+00	0.000000e+00	0.000000e+00	0.000000e+00	0.000000e+00	0.000000e+00	0.000000e+00	0.000000e+00	0.000000e+00	0.000000e+00	0.000000e+00	0.000000e+00	0.000000e+00	0.000000e+00	0.000000e+00	0.000000e+00	0.000000e+00	0.000000e+00	0.000000e+00	0.000000e+00	0.000000e+00	0.000000e+00	0.000000e+00	0.000000e+00	0.000000e+00	0.000000e+00	0.000000e+00	0.000000e+00	0.000000e+00	0.000000e+00	0.000000e+00	0.000000e+00	0.000000e+00	0.000000e+00	0.000000e+00	0.000000e+00	0.000000e+00	0.000000e+00	0.000000e+00	0.000000e+00	0.000000e+00	0.000000e+00	0.000000e+00	0.000000e+00	0.000000e+00	0.000000e+00	0.000000e+00	0.000000e+00	0.000000e+00	0.000000e+00	0.000000e+00	0.000000e+00	0.000000e+00	0.000000e+00	0.000000e+00	0.000000e+00	0.000000e+00	0.000000e+00	0.000000e+00	0.000000e+00	0.000000e+00	0.000000e+00	0.000000e+00	0.000000e+00	0.000000e+00	0.000000e+00	0.000000e+00	0.000000e+00	0.000000e+00	0.000000e+00	0.000000e+00	0.000000e+00	0.000000e+00	0.000000e+00	0.000000e+00	0.000000e+00	0.000000e+00	0.000000e+00	0.000000e+00	0.000000e+00	0.000000e+00	0.000000e+00	0.000000e+00	0.000000e+00	0.000000e+00	0.000000e+00	0.000000e+00	0.000000e+00	0.000000e+00	0.000000e+00	0.000000e+00	0.000000e+00	0.000000e+00	0.000000e+00	0.000000e+00	0.000000e+00	0.000000e+00	0.000000e+00	0.000000e+00	0.000000e+00	0.000000e+00	0.000000e+00	0.000000e+00	0.000000e+00	0.000000e+00	0.000000e+00	0.000000e+00	0.000000e+00	0.000000e+00	0.000000e+00	0.000000e+00	0.000000e+00	0.000000e+00	0.000000e+00	0.000000e+00	0.000000e+00	0.000000e+00	0.000000e+00	
SCALARS Conservative_3 float 1
LOOKUP_TABLE default
0.000000e+00	0.000000e+00	0.000000e+00	0.000000e+00	0.000000e+00	0.000000e+00	0.000000e+00	0.000000e+00	0.000000e+00	0.000000e+00	0.000000e+00	0.000000e+00	0.000000e+00	0.000000e+00	0.000000e+00	0.000000e+00	0.000000e+00	0.000000e+00	0.000000e+00	0.000000e+00	0.000000e+00	0.000000e+00	0.000000e+00	0.000000e+00	0.000000e+00	0.000000e+00	0.000000e+00	0.000000e+00	0.000000e+00	0.000000e+00	0.000000e+00	0.000000e+00	0.000000e+00	0.000000e+00	0.000000e+00	0.000000e+00	0.000000e+00	0.000000e+00	0.000000e+00	0.000000e+00	0.000000e+00	0.000000e+00	0.000000e+00	0.000000e+00	0.000000e+00	0.000000e+00	0.000000e+00	0.000000e+00	0.000000e+00	0.000000e+00	0.000000e+00	0.000000e+00	0.000000e+00	0.000000e+00	0.000000e+00	0.000000e+00	0.000000e+00	0.000000e+00	0.000000e+00	0.000000e+00	0.000000e+00	0.000000e+00	0.000000e+00	0.000000e+00	0.000000e+00	0.000000e+00	0.000000e+00	0.000000e+00	0.000000e+00	0.000000e+00	0.000000e+00	0.000000e+00	0.000000e+00	0.000000e+00	0.000000e+00	0.000000e+00	0.000000e+00	0.000000e+00	0.000000e+00	0.000000e+00	0.000000e+00	0.000000e+00	0.000000e+00	0.000000e+00	0.000000e+00	0.000000e+00	0.000000e+00	0.000000e+00	0.000000e+00	0.000000e+00	0.000000e+00	0.000000e+00	0.000000e+00	0.000000e+00	0.000000e+00	0.000000e+00	0.000000e+00	0.000000e+00	0.000000e+00	0.000000e+00	0.000000e+00	0.000000e+00	0.000000e+00	0.000000e+00	0.000000e+00	0.000000e+00	0.000000e+00	0.000000e+00	0.000000e+00	0.000000e+00	0.000000e+00	0.000000e+00	0.000000e+00	0.000000e+00	0.000000e+00	0.000000e+00	0.000000e+00	0.000000e+00	0.000000e+00	0.000000e+00	0.000000e+00	0.000000e+00	0.000000e+00	0.000000e+00	0.000000e+00	0.000000e+00	0.000000e+00	0.000000e+00	0.000000e+00	0.000000e+00	0.000000e+00	0.000000e+00	0.000000e+00	0.000000e+00	0.000000e+00	0.000000e+00	0.000000e+00	0.000000e+00	0.000000e+00	0.000000e+00	0.000000e+00	0.000000e+00	0.000000e+00	0.000000e+00	0.000000e+00	0.000000e+00	0.000000e+00	0.000000e+00	0.000000e+00	0.000000e+00	0.000000e+00	0.000000e+00	0.000000e+00	0.000000e+00	0.000000e+00	0.000000e+00	0.000000e+00	0.000000e+00	0.000000e+00	0.000000e+00	0.000000e+00	0.000000e+00	0.000000e+00	0.000000e+00	0.000000e+00	0.000000e+00	
SCALARS Conservative_4 float 1
LOOKUP_TABLE default
3.702524e+05	3.708242e+05	3.709763e+05	3.709781e+05	3.710225e+05	3.711132e+05	3.712070e+05	3.714241e+05	3.717498e+05	3.722564e+05	3.731276e+05	3.740007e+05	3.750247e+05	3.762579e+05	3.775005e+05	3.787064e+05	3.794743e+05	3.801487e+05	3.705459e+05	3.702276e+05	3.699355e+05	3.697271e+05	3.696063e+05	3.695056e+05	3.693700e+05	3.691325e+05	3.802452e+05	3.797591e+05	3.787884e+05	3.775946e+05	3.763885e+05	3.752763e+05	3.743567e+05	3.735448e+05	3.728962e+05	3.724930e+05	3.721674e+05	3.719050e+05	3.716833e+05	3.715074e+05	3.713520e+05	3.712152e+05	3.710804e+05	3.708548e+05	3.706955e+05	3.705104e+05	3.702396e+05	3.699091e+05	3.695169e+05	3.691550e+05	3.689035e+05	3.694320e+05	3.692371e+05	3.691337e+05	3.690374e+05	3.689307e+05	3.688164e+05	3.684235e+05	3.683061e+05	3.681366e+05	3.679854e+05	3.678133e+05	3.676379e+05	3.688263e+05	3.686819e+05	3.686002e+05	3.685222e+05	3.684511e+05	3.683842e+05	3.683240e+05	3.682700e+05	3.682204e+05	3.681778e+05	3.681345e+05	3.680861e+05	3.680444e+05	3.680284e+05	3.680451e+05	3.680894e+05	3.681707e+05	3.682951e+05	3.684558e+05	3.686455e+05	3.688542e+05	3.690743e+05	3.692991e+05	3.695221e+05	3.697456e+05	3.699701e+05	3.701955e+05	3.704205e+05	3.706404e+05	3.708538e+05	3.710605e+05	3.712615e+05	3.714550e+05	3.716416e+05	3.718198e+05	3.719905e+05	3.721529e+05	3.723071e+05	3.724464e+05	3.725733e+05	3.726642e+05	3.727246e+05	3.727788e+05	3.727990e+05	3.728126e+05	3.728211e+05	3.728115e+05	3.727983e+05	3.727648e+05	3.727410e+05	3.727223e+05	3.725589e+05	3.676205e+05	3.673911e+05	3.672561e+05	3.671309e+05	3.670189e+05	3.669162e+05	3.668239e+05	3.667406e+05	3.666679e+05	3.666045e+05	3.665420e+05	3.664761e+05	3.664220e+05	3.663947e+05	3.664116e+05	3.664579e+05	3.665463e+05	3.666809e+05	3.668598e+05	3.670764e+05	3.673148e+05	3.675677e+05	3.678273e+05	3.680872e+05	3.683481e+05	3.686097e+05	3.688758e+05	3.691425e+05	3.694038e+05	3.696584e+05	3.699093e+05	3.701597e+05	3.704069e+05	3.706475e+05	3.708792e+05	3.711009e+05	3.713129e+05	3.715143e+05	3.717049e+05	3.718727e+05	3.720083e+05	3.721180e+05	3.722074e+05	3.722738e+05	3.723271e+05	3.723712e+05	3.724054e+05	3.724340e+05	3.724571e+05	3.724775e+05	3.724901e+05	
SCALARS Conservative_5 float 1
LOOKUP_TABLE default
2.237453e-04	2.291804e-04	2.357131e-04	2.417564e-04	2.492322e-04	2.555308e-04	2.623386e-04	2.716385e-04	2.770010e-04	2.824207e-04	2.806878e-04	2.643278e-04	2.577025e-04	2.352701e-04	2.115304e-04	1.825844e-04	1.457225e-04	1.329912e-04	2.232263e-04	2.264445e-04	2.283343e-04	2.278855e-04	2.261390e-04	2.240829e-04	2.274084e-04	1.000000e-10	9.329106e-05	1.582532e-04	1.742346e-04	2.017479e-04	2.234346e-04	2.424806e-04	2.516240e-04	2.639403e-04	2.621311e-04	2.596912e-04	2.569804e-04	2.541857e-04	2.508990e-04	2.469475e-04	2.437800e-04	2.387416e-04	2.362434e-04	2.340643e-04	2.325464e-04	2.312215e-04	2.318407e-04	2.321067e-04	2.339056e-04	2.332022e-04	1.000000e-10	1.000000e-10	1.000000e-10	1.000000e-10	1.000000e-10	1.000000e-10	1.000000e-10	1.000000e-10	1.000000e-10	1.000000e-10	1.000000e-10	1.000000e-10	1.000000e-10	1.000000e-10	1.000000e-10	1.000000e-10	1.000000e-10	1.000000e-10	1.000000e-10	1.000000e-10	1.000000e-10	1.000000e-10	1.000000e-10	1.000000e-10	1.000000e-10	1.000000e-10	1.000000e-10	1.000000e-10	1.000000e-10	1.000000e-10	1.000000e-10	1.000000e-10	1.000000e-10	1.000000e-10	1.000000e-10	1.000000e-10	1.000000e-10	1.000000e-10	1.000000e-10	1.000000e-10	1.000000e-10	1.000000e-10	1.000000e-10	1.000000e-10	1.000000e-10	1.000000e-10	1.000000e-10	1.000000e-10	1.000000e-10	1.000000e-10	1.000000e-10	1.000000e-10	1.000000e-10	1.000000e-10	1.000000e-10	1.000000e-10	1.000000e-10	1.000000e-10	1.000000e-10	1.000000e-10	1.000000e-10	1.000000e-10	1.000000e-10	1.000000e-10	1.000000e-10	1.000000e-10	1.000000e-10	1.000000e-10	1.000000e-10	1.000000e-10	1.000000e-10	1.000000e-10	1.000000e-10	1.000000e-10	1.000000e-10	1.000000e-10	1.000000e-10	1.000000e-10	1.000000e-10	1.000000e-10	1.000000e-10	1.000000e-10	1.000000e-10	1.000000e-10	1.000000e-10	1.000000e-10	1.000000e-10	1.000000e-10	1.000000e-10	1.000000e-10	1.000000e-10	1.000000e-10	1.000000e-10	1.000000e-10	1.000000e-10	1.000000e-10	1.000000e-10	1.000000e-10	1.000000e-10	1.000000e-10	1.000000e-10	1.000000e-10	1.000000e-10	1.000000e-10	1.000000e-10	1.000000e-10	1.000000e-10	1.000000e-10	1.000000e-10	1.000000e-10	1.000000e-10	1.000000e-10	1.000000e-10	1.000000e-10	1.000000e-10	1.000000e-10	
SCALARS Residual_1 float 1
LOOKUP_TABLE default
-2.835808e-09	-1.067622e-09	-1.201013e-09	-1.343781e-09	-1.493801e-09	-1.654589e-09	-1.839796e-09	-2.048321e-09	-2.219529e-09	-2.371222e-09	-2.394028e-09	-2.127388e-09	-1.990609e-09	-1.629827e-09	-1.229298e-09	-7.562551e-10	-3.687595e-10	-9.811224e-11	-4.326343e-09	-4.458291e-09	-3.907019e-09	-2.934889e-09	-1.934377e-09	-1.155392e-09	-6.985158e-10	-1.799428e-10	3.235368e-10	8.006767e-10	1.108840e-09	1.671991e-09	2.157221e-09	2.594320e-09	2.875192e-09	3.215243e-09	3.226333e-09	3.103916e-09	2.968431e-09	2.841671e-09	2.690388e-09	2.542447e-09	2.412498e-09	2.267016e-09	2.097109e-09	2.368065e-09	3.186258e-09	4.248127e-09	5.718795e-09	7.663547e-09	1.037692e-08	1.372791e-08	1.230396e-09	-2.553110e-10	-2.280676e-10	-2.024299e-10	-1.757164e-10	-1.505201e-10	-1.709120e-10	9.973792e-10	9.800094e-10	9.736650e-10	9.672752e-10	9.640576e-10	1.263621e-09	-1.703239e-10	-1.163249e-10	-7.101235e-11	-3.285707e-11	5.096666e-12	3.844469e-11	7.847797e-11	1.153955e-10	1.473152e-10	1.850490e-10	2.193223e-10	2.565316e-10	2.869119e-10	3.378106e-10	3.704521e-10	4.108899e-10	4.519579e-10	4.910701e-10	5.264397e-10	5.646484e-10	6.016736e-10	6.407499e-10	6.799905e-10	7.177666e-10	7.605196e-10	8.046808e-10	8.502038e-10	8.963429e-10	9.448696e-10	9.956742e-10	1.047092e-09	1.094814e-09	1.139084e-09	1.191709e-09	1.242681e-09	1.294566e-09	1.330110e-09	1.376906e-09	1.339138e-09	1.225253e-09	1.122683e-09	9.796051e-10	8.606124e-10	7.797843e-10	6.878948e-10	6.314204e-10	5.622379e-10	4.959439e-10	4.514498e-10	4.091279e-10	3.775175e-10	3.804974e-10	1.556712e-09	1.569921e-09	1.578011e-09	1.589009e-09	1.604156e-09	1.624439e-09	1.645095e-09	1.671352e-09	1.698654e-09	1.732209e-09	1.765596e-09	1.806212e-09	1.830548e-09	1.888870e-09	1.919240e-09	1.953715e-09	2.009719e-09	2.047351e-09	2.082004e-09	2.119366e-09	2.155190e-09	2.193876e-09	2.234933e-09	2.278648e-09	2.325163e-09	2.373327e-09	2.436246e-09	2.497513e-09	2.558491e-09	2.630173e-09	2.701409e-09	2.780189e-09	2.868566e-09	2.941356e-09	3.014230e-09	3.062150e-09	3.093282e-09	3.109457e-09	2.938993e-09	2.533509e-09	2.075608e-09	1.700381e-09	1.418792e-09	1.165066e-09	9.690192e-10	8.121077e-10	6.853124e-10	5.794048e-10	4.857715e-10	3.872037e-10	3.215952e-10	
SCALARS Residual_2 float 1
LOOKUP_TABLE default
-0.000000e+00	-0.000000e+00	-0.000000e+00	-0.000000e+00	-0.000000e+00	-0.000000e+00	-0.000000e+00	-0.000000e+00	-0.000000e+00	-0.000000e+00	-0.000000e+00	-0.000000e+00	-0.000000e+00	-0.000000e+00	-0.000000e+00	-0.000000e+00	-0.000000e+00	-0.000000e+00	-0.000000e+00	-0.000000e+00	-0.000000e+00	-0.000000e+00	-0.000000e+00	-0.000000e+00	-0.000000e+00	-0.000000e+00	-0.000000e+00	-0.000000e+00	-0.000000e+00	-0.000000e+00	-0.000000e+00	-0.000000e+00	-0.000000e+00	-0.000000e+00	-0.000000e+00	-0.000000e+00	-0.000000e+00	-0.000000e+00	-0.000000e+00	-0.000000e+00	-0.000000e+00	-0.000000e+00	-0.000000e+00	-0.000000e+00	-0.000000e+00	-0.000000e+00	-0.000000e+00	-0.000000e+00	-0.000000e+00	-0.000000e+00	-0.000000e+00	-0.000000e+00	-0.000000e+00	-0.000000e+00	-0.000000e+00	-0.000000e+00	-0.000000e+00	-0.000000e+00	-0.000000e+00	-0.000000e+00	-0.000000e+00	-0.000000e+00	-0.000000e+00	-0.000000e+00	-0.000000e+00	-0.000000e+00	-0.000000e+00	-0.000000e+00	-0.000000e+00	-0.000000e+00	-0.000000e+00	-0.000000e+00	-0.000000e+00	-0.000000e+00	-0.000000e+00	-0.000000e+00	-0.000000e+00	-0.000000e+00	-0.000000e+00	-0.000000e+00	-0.000000e+00	-0.000000e+00	-0.000000e+00	-0.000000e+00	-0.000000e+00	-0.000000e+00	-0.000000e+00	-0.000000e+00	-0.000000e+00	-0.000000e+00	-0.000000e+00	-0.000000e+00	-0.000000e+00	-0.000000e+00	-0.000000e+00	-0.000000e+00	-0.000000e+00	-0.000000e+00	-0.000000e+00	-0.000000e+00	-0.000000e+00	-0.000000e+00	-0.000000e+00	-0.000000e+00	-0.000000e+00	-0.000000e+00	-0.000000e+00	-0.000000e+00	-0.000000e+00	-0.000000e+00	-0.000000e+00	-0.000000e+00	-0.000000e+00	-0.000000e+00	-0.000000e+00	-0.000000e+00	-0.000000e+00	-0.000000e+00	-0.000000e+00	-0.000000e+00	-0.000000e+00	-0.000000e+00	-0.000000e+00	-0.000000e+00	-0.000000e+00	-0.000000e+00	-0.000000e+00	-0.000000e+00	-0.000000e+00	-0.000000e+00	-0.000000e+00	-0.000000e+00	-0.000000e+00	-0.000000e+00	-0.000000e+00	-0.000000e+00	-0.000000e+00	-0.000000e+00	-0.000000e+00	-0.000000e+00	-0.000000e+00	-0.000000e+00	-0.000000e+00	-0.000000e+00	-0.000000e+00	-0.000000e+00	-0.000000e+00	-0.000000e+00	-0.000000e+00	-0.000000e+00	-0.000000e+00	-0.000000e+00	-0.000000e+00	-0.000000e+00	-0.000000e+00	-0.000000e+00	-0.000000e+00	-0.000000e+00	-0.000000e+00	-0.000000e+00	-0.000000e+00	-0.000000e+00	-0.000000e+00	-0.000000e+00	-0.000000e+00	-0.000000e+00	
SCALARS Residual_3 float 1
LOOKUP_TABLE default
-0.000000e+00	-0.000000e+00	-0.000000e+00	-0.000000e+00	-0.000000e+00	-0.000000e+00	-0.000000e+00	-0.000000e+00	-0.000000e+00	-0.000000e+00	-0.000000e+00	-0.000000e+00	-0.000000e+00	-0.000000e+00	-0.000000e+00	-0.000000e+00	-0.000000e+00	-0.000000e+00	-0.000000e+00	-0.000000e+00	-0.000000e+00	-0.000000e+00	-0.000000e+00	-0.000000e+00	-0.000000e+00	-0.000000e+00	-0.000000e+00	-0.000000e+00	-0.000000e+00	-0.000000e+00	-0.000000e+00	-0.000000e+00	-0.000000e+00	-0.000000e+00	-0.000000e+00	-0.000000e+00	-0.000000e+00	-0.000000e+00	-0.000000e+00	-0.000000e+00	-0.000000e+00	-0.000000e+00	-0.000000e+00	-0.000000e+00	-0.000000e+00	-0.000000e+00	-0.000000e+00	-0.000000e+00	-0.000000e+00	-0.000000e+00	-0.000000e+00	-0.000000e+00	-0.000000e+00	-0.000000e+00	-0.000000e+00	-0.000000e+00	-0.000000e+00	-0.000000e+00	-0.000000e+00	-0.000000e+00	-0.000000e+00	-0.000000e+00	-0.000000e+00	-0.000000e+00	-0.000000e+00	-0.000000e+00	-0.000000e+00	-0.000000e+00	-0.000000e+00	-0.000000e+00	-0.000000e+00	-0.000000e+00	-0.000000e+00	-0.000000e+00	-0.000000e+00	-0.000000e+00	-0.000000e+00	-0.000000e+00	-0.000000e+00	-0.000000e+00	-0.000000e+00	-0.000000e+00	-0.000000e+00	-0.000000e+00	-0.000000e+00	-0.000000e+00	-0.000000e+00	-0.000000e+00	-0.000000e+00	-0.000000e+00	-0.000000e+00	-0.000000e+00	-0.000000e+00	-0.000000e+00	-0.000000e+00	-0.000000e+00	-0.000000e+00	-0.000000e+00	-0.000000e+00	-0.000000e+00	-0.000000e+00	-0.000000e+00	-0.000000e+00	-0.000000e+00	-0.000000e+00	-0.000000e+00	-0.000000e+00	-0.000000e+00	-0.000000e+00	-0.000000e+00	-0.000000e+00	-0.000000e+00	-0.000000e+00	-0.000000e+00	-0.000000e+00	-0.000000e+00	-0.000000e+00	-0.000000e+00	-0.000000e+00	-0.000000e+00	-0.000000e+00	-0.000000e+00	-0.000000e+00	-0.000000e+00	-0.000000e+00	-0.000000e+00	-0.000000e+00	-0.000000e+00	-0.000000e+00	-0.000000e+00	-0.000000e+00	-0.000000e+00	-0.000000e+00	-0.000000e+00	-0.000000e+00	-0.000000e+00	-0.000000e+00	-0.000000e+00	-0.000000e+00	-0.000000e+00	-0.000000e+00	-0.000000e+00	-0.000000e+00	-0.000000e+00	-0.000000e+00	-0.000000e+00	-0.000000e+00	-0.000000e+00	-0.000000e+00	-0.000000e+00	-0.000000e+00	-0.000000e+00	-0.000000e+00	-0.000000e+00	-0.000000e+00	-0.000000e+00	-0.000000e+00	-0.000000e+00	-0.000000e+00	-0.000000e+00	-0.000000e+00	-0.000000e+00	-0.000000e+00	-0.000000e+00	-0.000000e+00	-0.000000e+00	
SCALARS Residual_4 float 1
LOOKUP_TABLE default
-6.067881e-04	-2.123242e-04	-2.421967e-04	-2.747974e-04	-3.067953e-04	-3.427172e-04	-3.826795e-04	-4.283055e-04	-4.678444e-04	-5.020147e-04	-5.186472e-04	-4.625896e-04	-4.417638e-04	-3.730167e-04	-2.852772e-04	-1.815774e-04	-9.265938e-05	-2.950351e-05	-8.910090e-04	-8.790152e-04	-7.621165e-04	-5.643308e-04	-3.670868e-04	-2.160664e-04	-1.318270e-04	-3.481953e-05	1.041072e-05	1.348644e-04	2.111959e-04	3.422813e-04	4.487854e-04	5.435935e-04	5.838265e-04	6.729017e-04	6.624437e-04	6.348102e-04	6.050840e-04	5.796699e-04	5.468970e-04	5.166195e-04	4.907252e-04	4.607917e-04	4.259487e-04	4.804437e-04	6.494854e-04	8.630653e-04	1.161507e-03	1.556543e-03	2.096760e-03	2.750713e-03	2.477946e-04	-4.884098e-05	-4.276859e-05	-3.768733e-05	-3.232863e-05	-2.728845e-05	-3.016502e-05	2.026379e-04	1.985352e-04	1.969379e-04	1.957816e-04	1.950481e-04	2.550108e-04	-2.885441e-05	-1.818117e-05	-9.070246e-06	-1.254976e-06	6.524183e-06	1.349496e-05	2.113575e-05	2.979024e-05	3.572785e-05	4.322566e-05	5.069665e-05	5.738821e-05	6.424895e-05	7.341189e-05	8.066797e-05	9.014646e-05	9.887427e-05	1.074348e-04	1.148431e-04	1.225689e-04	1.301825e-04	1.380495e-04	1.459104e-04	1.538637e-04	1.626450e-04	1.717309e-04	1.807362e-04	1.903763e-04	2.003363e-04	2.109955e-04	2.217066e-04	2.325039e-04	2.429760e-04	2.563875e-04	2.703334e-04	2.842994e-04	2.958223e-04	3.104315e-04	3.127798e-04	2.912546e-04	2.732201e-04	2.410593e-04	2.110291e-04	1.893911e-04	1.671364e-04	1.502208e-04	1.348914e-04	1.181496e-04	1.074515e-04	9.694697e-05	8.724469e-05	8.672017e-05	3.136093e-04	3.157921e-04	3.167131e-04	3.185802e-04	3.212601e-04	3.250310e-04	3.284468e-04	3.335404e-04	3.387569e-04	3.449171e-04	3.515886e-04	3.590548e-04	3.639378e-04	3.739392e-04	3.803939e-04	3.878377e-04	4.009726e-04	4.086304e-04	4.158755e-04	4.229044e-04	4.299394e-04	4.374091e-04	4.453828e-04	4.541441e-04	4.634147e-04	4.737313e-04	4.861093e-04	4.980657e-04	5.092794e-04	5.240714e-04	5.393107e-04	5.547104e-04	5.719157e-04	5.869393e-04	6.046057e-04	6.189664e-04	6.332600e-04	6.514511e-04	6.345896e-04	5.675330e-04	4.832196e-04	4.106210e-04	3.460322e-04	3.008199e-04	2.558909e-04	2.178714e-04	1.853803e-04	1.578647e-04	1.342256e-04	1.111011e-04	9.604261e-05	
SCALARS Residual_5 float 1
LOOKUP_TABLE default
2.796080e-12	1.434607e-12	1.388329e-12	1.632436e-12	2.036100e-12	2.587685e-12	3.305041e-12	4.245273e-12	5.206570e-12	6.619967e-12	7.812172e-12	7.730615e-12	8.825451e-12	7.452979e-12	6.952896e-12	5.493225e-12	1.528819e-12	8.531026e-12	2.751023e-12	1.432843e-12	8.669111e-13	2.034418e-13	-1.189537e-13	-9.437484e-14	-5.592742e-14	-0.000000e+00	-1.169175e-11	8.952361e-13	-7.425358e-12	-8.509413e-12	-9.325278e-12	-1.047731e-11	-1.062926e-11	-1.039336e-11	-8.793096e-12	-7.681372e-12	-6.910657e-12	-6.222667e-12	-5.656382e-12	-5.179802e-12	-4.782913e-12	-4.358580e-12	-3.983110e-12	-4.407427e-12	-5.655981e-12	-7.204741e-12	-9.371536e-12	-1.205937e-11	-1.567649e-11	-2.012482e-11	-0.000000e+00	-0.000000e+00	-0.000000e+00	-0.000000e+00	-0.000000e+00	-0.000000e+00	-0.000000e+00	-0.000000e+00	-0.000000e+00	-0.000000e+00	-0.000000e+00	-0.000000e+00	-0.000000e+00	-0.000000e+00	-0.000000e+00	-0.000000e+00	-0.000000e+00	-0.000000e+00	-0.000000e+00	-0.000000e+00	-0.000000e+00	-0.000000e+00	-0.000000e+00	-0.000000e+00	-0.000000e+00	-0.000000e+00	-0.000000e+00	-0.000000e+00	-0.000000e+00	-0.000000e+00	-0.000000e+00	-0.000000e+00	-0.000000e+00	-0.000000e+00	-0.000000e+00	-0.000000e+00	-0.000000e+00	-0.000000e+00	-0.000000e+00	-0.000000e+00	-0.000000e+00	-0.000000e+00	-0.000000e+00	-0.000000e+00	-0.000000e+00	-0.000000e+00	-0.000000e+00	-0.000000e+00	-0.000000e+00	-0.000000e+00	-0.000000e+00	-0.000000e+00	-0.000000e+00	-0.000000e+00	-0.000000e+00	-0.000000e+00	-0.000000e+00	-0.000000e+00	-0.000000e+00	-0.000000e+00	-0.000000e+00	-0.000000e+00	-0.000000e+00	-0.000000e+00	-0.000000e+00	-0.000000e+00	-0.000000e+00	-0.000000e+00	-0.000000e+00	-0.000000e+00	-0.000000e+00	-0.000000e+00	-0.000000e+00	-0.000000e+00	-0.000000e+00	-0.000000e+00	-0.000000e+00	-0.000000e+00	-0.000000e+00	-0.000000e+00	-0.000000e+00	-0.000000e+00	-0.000000e+00	-0.000000e+00	-0.000000e+00	-0.000000e+00	-0.000000e+00	-0.000000e+00	-0.000000e+00	-0.000000e+00	-0.000000e+00	-0.000000e+00	-0.000000e+00	-0.000000e+00	-0.000000e+00	-0.000000e+00	-0.000000e+00	-0.000000e+00	-0.000000e+00	-0.000000e+00	-0.000000e+00	-0.000000e+00	-0.000000e+00	-0.000000e+00	-0.000000e+00	-0.000000e+00	-0.000000e+00	-0.000000e+00	-0.000000e+00	-0.000000e+00	-0.000000e+00	-0.000000e+00	-0.000000e+00	-0.000000e+00	-0.000000e+00	-0.000000e+00	
SCALARS Pressure float 1
LOOKUP_TABLE default